********************************************************************************
*                       GENERAL UTILITY LATTICE PROGRAM                        *
*                                 Julian Gale                                  *
*                       Curtin Institute for Computation                       *
*                    School of Molecular and Life Sciences                     *
*                    Curtin University, Western Australia                      *
********************************************************************************
* Version = 6.2.3 * Last modified =   9th October 2024                         *
********************************************************************************
*  optimise     - perform optimisation run                                     *
*  conp         - constant pressure calculation                                *
*  nosymmetry   - turn off symmetry after initial structure generation         *
*  conjugate    - use conjugate gradients minimiser                            *
********************************************************************************

  Job Started  at 10:08.10 29th November   2024                               

  Number of CPUs =     1


  Total number of configurations input =      1

********************************************************************************
*  Input for Configuration =   1                                               *
********************************************************************************

  Formula = O4Ti2

  Number of irreducible atoms/shells =       6


  Total number atoms/shells =       6

  Dimensionality = 3               :  Bulk   



  Cartesian lattice vectors (Angstroms) :

        6.120384    0.000000    0.000000
       -3.061424    4.671059    0.000000
       -2.853923   -0.042497    3.920263

  Cell parameters (Angstroms/Degrees):

  a =       6.1204    alpha =  71.6223
  b =       5.5849    beta  = 126.0527
  c =       4.8492    gamma = 123.2409

  Initial cell volume =         112.075135 Angs**3

  Temperature of configuration =   0.00     K 

  Pressure of configuration =         0.000 GPa 

  Fractional coordinates of asymmetric unit :

--------------------------------------------------------------------------------
   No.  Atomic       x           y          z         Charge      Occupancy
        Label      (Frac)      (Frac)     (Frac)        (e)         (Frac)  
--------------------------------------------------------------------------------
      1 O     c    0.082929    0.502583    0.075873    -2.00000    1.000000    
      2 O     c    0.419081 *  0.996180 *  0.748738 *  -2.00000    1.000000    
      3 O     c    0.750319 *  0.003912 *  0.404773 *  -2.00000    1.000000    
      4 O     c    0.580551 *  0.497311 *  0.075909 *  -2.00000    1.000000    
      5 Ti    c    0.442151 *  0.715964 *  0.078006 *   4.00000    1.000000    
      6 Ti    c    0.724969 *  0.284049 *  0.075531 *   4.00000    1.000000    
--------------------------------------------------------------------------------



********************************************************************************
*  General input information                                                   *
********************************************************************************

  Species output for all configurations : 

--------------------------------------------------------------------------------
  Species    Type    Atomic    Atomic    Charge       Radii (Angs)     Library
                     Number     Mass       (e)     Cova   Ionic  VDW   Symbol
--------------------------------------------------------------------------------
    Ti       Core       22      47.88   4.000000   1.470  0.000  2.190          
    O        Core        8      16.00  -2.000000   0.730  0.000  1.360          
--------------------------------------------------------------------------------


  Lattice summation method               =    Ewald          (3-D)
                                         =    Parry          (2-D)
                                         =    Saunders et al (1-D)
  Accuracy factor for lattice sums       =   12.000


  Analytic derivatives to be used

  Time limit = Infinity

  Maximum range for interatomic potentials =    100000.000000 Angstroms

  General interatomic potentials :

--------------------------------------------------------------------------------
Atom  Types   Potential      Parameter       Value         Units   Cutoffs(Ang)
  1     2                                                            Min /  Max 
--------------------------------------------------------------------------------
O    c Ti   c Buckingham    Buckingham A     754.20000    eV        0.000 10.000
                            Buckingham rho  0.38790000    Ang       
                            Buckingham C     0.0000000    eV*Ang^6  
--------------------------------------------------------------------------------
O    c O    c Buckingham    Buckingham A     22764.000    eV        0.000 10.000
                            Buckingham rho  0.14900000    Ang       
                            Buckingham C     0.0000000    eV*Ang^6  
--------------------------------------------------------------------------------
O    c Ti   c ZBL           ZBL b1          0.18175000    None      0.000 10.000
                            ZBL c1           3.1998000    None      
                            ZBL b2          0.50986000    None      
                            ZBL c2          0.94229000    None      
                            ZBL b3          0.28022000    None      
                            ZBL c3          0.40290000    None      
                            ZBL b4          0.28170000E-01None      
                            ZBL c4          0.20162000    None      
                            ZBL d           0.46850000    None      
                            Exponent n      0.23000000    None
--------------------------------------------------------------------------------

********************************************************************************
*  Output for configuration   1                                                *
********************************************************************************


  Components of energy : 

--------------------------------------------------------------------------------
  Interatomic potentials     =          80.37951107 eV    
  Monopole - monopole (real) =        -107.88393115 eV    
  Monopole - monopole (recip)=        -164.02757245 eV    
  Monopole - monopole (total)=        -271.91150360 eV    
--------------------------------------------------------------------------------
  Total lattice energy       =        -191.53199253 eV    
--------------------------------------------------------------------------------
  Total lattice energy       =          -18479.9094 kJ/(mole unit cells)
--------------------------------------------------------------------------------


  Number of variables =       21

  Maximum number of calculations  =            10
  Maximum Hessian update interval =            10
  Maximum step size               =   1.000000000
  Maximum parameter tolerance     =   0.000010000
  Maximum function  tolerance     =   0.000010000
  Maximum gradient  tolerance     =   0.001000000
  Maximum gradient  component     =   0.010000000

  Cell parameters to be optimised using strains

  Conjugate gradient optimiser to be used

  Lower half triangular hessian to be used

  Start of bulk optimisation :

  Cycle:      0 Energy:      -191.531993  Gnorm:      5.223893  CPU:    0.006
  Cycle:      1 Energy:      -194.688148  Gnorm:      4.527491  CPU:    0.007
  Cycle:      2 Energy:      -197.084492  Gnorm:      2.683425  CPU:    0.010
  Cycle:      3 Energy:      -198.831109  Gnorm:      1.397048  CPU:    0.012
  Cycle:      4 Energy:      -199.089266  Gnorm:      0.846075  CPU:    0.014
  Cycle:      5 Energy:      -199.302329  Gnorm:      0.659527  CPU:    0.016
  Cycle:      6 Energy:      -199.354875  Gnorm:      0.467060  CPU:    0.018
  Cycle:      7 Energy:      -199.423898  Gnorm:      0.463776  CPU:    0.020
  Cycle:      8 Energy:      -199.607079  Gnorm:      0.713877  CPU:    0.022
  Cycle:      9 Energy:      -199.672683  Gnorm:      0.429650  CPU:    0.025
  Cycle:     10 Energy:      -199.701363  Gnorm:      0.444218  CPU:    0.026


  **** Maximum number of function calls has been reached ****


  Final energy =    -199.70136259 eV      
  Final Gnorm  =       0.44421790

  Components of energy : 

--------------------------------------------------------------------------------
  Interatomic potentials     =          47.92640438 eV    
  Monopole - monopole (real) =        -100.61802008 eV    
  Monopole - monopole (recip)=        -147.00974690 eV    
  Monopole - monopole (total)=        -247.62776697 eV    
--------------------------------------------------------------------------------
  Total lattice energy       =        -199.70136259 eV    
--------------------------------------------------------------------------------
  Total lattice energy       =          -19268.1288 kJ/(mole unit cells)
--------------------------------------------------------------------------------

  Final fractional coordinates of atoms :

--------------------------------------------------------------------------------
   No.  Atomic        x           y          z          Radius
        Label       (Frac)      (Frac)     (Frac)       (Angs) 
--------------------------------------------------------------------------------
     1  O     c     0.082929    0.502583    0.075873    0.000000
     2  O     c     0.453327    0.996496    0.791897    0.000000
     3  O     c     0.712607    0.007007    0.361531    0.000000
     4  O     c     0.584109    0.500982    0.075588    0.000000
     5  Ti    c     0.437054    0.707991    0.079950    0.000000
     6  Ti    c     0.727528    0.296925    0.073759    0.000000
--------------------------------------------------------------------------------

  Final Cartesian lattice vectors (Angstroms) :

        6.663995   -0.004700   -0.007953
       -3.336926    5.652603   -0.036518
       -3.112469   -0.083200    4.185684


  Final cell parameters and derivatives :

--------------------------------------------------------------------------------
       a            6.664001 Angstrom     dE/de1(xx)     0.780622 eV/strain
       b            6.564170 Angstrom     dE/de2(yy)    -1.444554 eV/strain
       c            5.216736 Angstrom     dE/de3(zz)    -3.177936 eV/strain
       alpha       73.435009 Degrees      dE/de4(yz)    -0.269204 eV/strain
       beta       126.696572 Degrees      dE/de5(xz)    -0.307320 eV/strain
       gamma      120.594239 Degrees      dE/de6(xy)     0.086807 eV/strain
--------------------------------------------------------------------------------

  Primitive cell volume =           157.441627 Angs**3

  Density of cell =      1.685018 g/cm**3

  Non-primitive cell volume =           157.441627 Angs**3


  Final internal derivatives :

--------------------------------------------------------------------------------
   No.  Atomic          a             b             c           Radius
        Label          (eV)          (eV)          (eV)        (eV/Angs)
--------------------------------------------------------------------------------
      1 O     c       0.000000      0.000000      0.000000      0.000000
      2 O     c       3.119333     -0.513384     -0.753630      0.000000
      3 O     c      -2.879322     -0.012915      0.592632      0.000000
      4 O     c       3.686283     -3.769685     -1.786029      0.000000
      5 Ti    c      -1.529554      0.856823      0.998615      0.000000
      6 Ti    c      -2.834775      3.200854      1.227776      0.000000
--------------------------------------------------------------------------------
  Maximum abs         3.686283      3.769685      1.786029      0.000000
--------------------------------------------------------------------------------


  Time to end of optimisation =       0.0264 seconds


  Peak dynamic memory used =       1.82 MB 


  Timing analysis for GULP :

--------------------------------------------------------------------------------
  Task / Subroutine                                          Time (Seconds)
--------------------------------------------------------------------------------
  Calculation of reciprocal space energy and derivatives          0.0016
  Calculation of real space energy and derivatives                0.0197
--------------------------------------------------------------------------------
  Total CPU time                                                  0.0265
--------------------------------------------------------------------------------


  Job Finished at 10:08.10 29th November   2024                               

